TITLE='title'
Variables='X','Y'
Zone T='title',N= 104,E= 210,ET=LINESEGF=FEBLOCK
-5
0.084548
-5
-1.29697
1.9861
-1.50919
5
-5
5
5
-0.214132
-5
-5
-5
-5
-5
5
1
5
5
3
2
-5
1.4208
1.99857
0.508075
-2
5
5
-5
0.381329
5
-1.61452
2.6439
-1.19551
-0.942979
-0.084548
-5
1.29697
5
3
5
5
-0.508075
-5
-4
-4
-5
0.214132
5
-1
0.669607
-1.05569
0
-1
-3
1.05569
-5
-1.92916
-5
5
-1.4208
1.68783
-5
-5
1.77223
-5
-1.9664
-1.89039
5
1.89039
-1.99857
4
5
-5
2
-1.77223
1.82895
1.19551
1
5
-2
5
-5
-5
4
0
0.942979
-0.381329
3.62808
-0.669607
1.50919
1.92916
1.9664
5
5
-1.82895
-1.9861
-3
-0.79072
0.79072
1.61452
5
-1.68783
7
-9.49759
8
-9.02212
-7.26636
-8.81168
-10
2
5
2
-9.48796
-9
6
9
4
-3
3
10
1
-6
10
-10
1
-8.90696
-7.56499
-5.566
-10
4
7
-10
-9.46268
10
-6.32059
-7.52923
-5.89664
-5.73677
-5.50241
-4
-5.97788
-7
-10
-8
-2
-9.434
10
10
-10
-2
-5.51204
8
10
-9.38396
-9.19852
-10
-10
-10
-5.80148
-6
-8.02706
-8
-1
-6.09304
-6.4279
-1
-7
-8.42558
0
-7.1379
-6.84889
0
-8.15111
-7.43501
-10
-9
5
10
-6.57442
-6.69135
-9.10336
-10
-4
10
-5
3
-5
10
10
-9.26323
-5.53732
-2.4939
-5.61604
-6.18832
-6.97294
-7.8621
-3
9
-8.30865
-7.73364
10
-9.33683
-5.66317
-8.67941
6
-8.5721
3 1
1 13
13 75
75 15
15 84
84 8
8 23
23 67
67 64
64 48
48 16
16 38
38 85
85 58
58 65
65 60
60 12
12 30
30 47
47 56
56 27
27 55
55 54
54 80
80 22
22 41
41 73
73 7
7 74
74 42
42 40
40 20
20 83
83 81
81 95
95 43
43 61
61 70
70 19
19 10
10 17
17 28
28 9
9 103
103 29
29 50
50 96
96 32
32 86
86 21
21 76
76 18
18 87
87 51
51 82
82 99
99 46
46 45
45 14
14 3
100 53
53 4
4 6
6 104
104 97
97 59
59 98
98 72
72 68
68 69
69 77
77 33
33 62
62 35
35 36
36 91
91 89
89 37
37 49
49 26
26 101
101 57
57 39
39 92
92 63
63 78
78 93
93 5
5 25
25 94
94 71
71 66
66 102
102 24
24 79
79 88
88 52
52 31
31 2
2 11
11 44
44 100
75 9
78 34
80 31
15 9
96 86
65 69
55 53
100 55
103 76
65 98
63 90
59 60
99 14
66 34
10 84
91 19
27 97
46 14
29 76
74 41
21 96
76 50
35 19
82 1
16 19
10 64
71 34
10 23
12 47
19 90
10 67
26 90
48 19
79 80
58 19
99 1
9 87
77 65
84 28
88 80
52 80
22 24
19 62
65 33
27 104
34 90
25 34
82 13
99 3
83 34
2 54
103 18
95 34
89 19
20 34
102 22
39 90
60 56
5 34
41 20
55 6
66 41
21 50
11 55
92 90
19 49
19 36
62 65
12 56
19 65
98 60
19 85
73 74
54 31
19 37
43 34
61 90
70 90
27 59
20 66
94 34
72 65
17 84
42 41
66 22
6 27
55 2
51 75
10 8
87 103
15 28
49 90
57 90
93 34
55 4
81 34
19 64
19 38
13 51
75 87
78 90
101 90
27 60
79 22
68 65
40 41
43 90
55 44
